% Model:              正常2.mph
% Version:            COMSOL 5.4.0.225
% Date:               Nov 25 2019, 21:41
% Dimension:          1
% Nodes:              1001
% Expressions:        1
% Description:        点图
% X                       Height
0                         0.11503894542299425
5.0E-4                    0.11503894542299425
0.001                     -0.35149260334334115
0.0015                    0.46293240416987674
0.002                     -0.4969026686353004
0.0025                    0.4849732077212392
0.003                     -0.4478885701717096
0.0035                    0.3988696457287008
0.004                     -0.34618104542586625
0.0045000000000000005     0.29468345473494806
0.005                     -0.2470818288971623
0.0055                    0.20464849760428078
0.006                     -0.1677871591302369
0.006500000000000001      0.13638923020096164
0.007                     -0.11003273780368125
0.0075                    0.08819868092423028
0.008                     -0.0702673527857311
0.0085                    0.055699390726395626
0.009000000000000001      -0.043916291588270664
0.0095                    0.034487230454381505
0.01                      -0.026945041617427355
0.0105                    0.02098679366906086
0.011                     -0.016260372529679153
0.0115                    0.012570073508751603
0.012                     -0.009661367861435318
0.0125                    0.007415285345472196
0.013000000000000001      -0.005654507633744253
0.0135                    0.004308423426834168
0.014                     -0.0032597260809101294
0.0145                    0.0024637572495557003
0.015                     -0.0018501777002362353
0.0155                    0.0013843648514987128
0.016                     -0.0010332104327698004
0.0165                    7.620085118581168E-4
0.017                     -5.672230080226298E-4
0.0175                    4.0872223502806985E-4
0.018000000000000002      -3.059195127852643E-4
0.0185                    2.116585567495075E-4
0.019                     -1.6203710982757856E-4
0.0195                    1.0406079338443877E-4
0.02                      -8.429283429156143E-5
0.0205                    4.699564511192707E-5
0.021                     -4.301407180647441E-5
0.021500000000000002      1.8065784042832754E-5
0.022                     -2.1330610768844765E-5
0.0225                    4.550082247125526E-6
0.023                     -9.855350178183062E-6
0.0235                    -6.994559566350799E-7
0.024                     -3.5144771353237306E-6
0.0245                    -1.672247829184666E-6
0.025                     3.1907147496532264E-7
0.025500000000000002      -5.949936817389309E-7
0.026000000000000002      2.913399195718001E-6
0.0265                    1.2778915760049372E-6
0.027                     4.806201240935746E-6
0.0275                    3.2278500527948215E-6
0.028                     6.165445251050036E-6
0.0285                    4.8386751180099565E-6
0.029                     6.994882497992834E-6
0.029500000000000002      5.876184765867492E-6
0.03                      7.249638794884841E-6
0.0305                    6.228397467401268E-6
0.031                     6.899052101788234E-6
0.0315                    5.875755080730638E-6
0.032                     5.957677009044917E-6
0.0325                    4.874210462829199E-6
0.033                     4.49624798649294E-6
0.0335                    3.34193796337843E-6
0.034                     2.6394658241368077E-6
0.0345                    1.4452046046308518E-6
0.035                     5.549560176949217E-7
0.035500000000000004      -6.181653741069557E-7
0.036000000000000004      -1.5634450801453322E-6
0.0365                    -2.6375570174397077E-6
0.037                     -3.5154485891894718E-6
0.0375                    -4.409382618034885E-6
0.038                     -5.114742769163286E-6
0.0385                    -5.756275255292943E-6
0.039                     -6.207926076488282E-6
0.0395                    -6.543858088490114E-6
0.04                      -6.690048452080324E-6
0.0405                    -6.6934493873263955E-6
0.041                     -6.515252302168982E-6
0.0415                    -6.189436019049017E-6
0.042                     -5.701504591372736E-6
0.0425                    -5.080567824599926E-6
0.043000000000000003      -4.3289937225828276E-6
0.043500000000000004      -3.475025553638903E-6
0.044                     -2.53238091479734E-6
0.0445                    -1.529729664767188E-6
0.045                     -4.876892425656225E-7
0.0455                    5.650763321403562E-7
0.046                     1.6048711856450788E-6
0.0465                    2.604471490024048E-6
0.047                     3.54045449007751E-6
0.0475                    4.388919950922946E-6
0.048                     5.129593202547596E-6
0.0485                    5.743799142330254E-6
0.049                     6.216719559764867E-6
0.0495                    6.536492243794626E-6
0.05                      6.69538363170863E-6
0.0505                    6.6893774843996826E-6
0.051000000000000004      6.518678222895521E-6
0.051500000000000004      6.187443052768351E-6
0.052000000000000005      5.703845721694942E-6
0.0525                    5.079777774297793E-6
0.053                     4.330608585417288E-6
0.0535                    3.4747847242836453E-6
0.054                     2.533379013940775E-6
0.0545                    1.5295797873605965E-6
0.055                     4.881047296692839E-7
0.0555                    -5.653904259027766E-7
0.056                     -1.6049629634697347E-6
0.0565                    -2.6050044369771923E-6
0.057                     -3.540888793053951E-6
0.0575                    -4.389564033755648E-6
0.058                     -5.1301336724411225E-6
0.0585                    -5.744359850231389E-6
0.059000000000000004      -6.2171223545208005E-6
0.059500000000000004      -6.536782362260168E-6
0.06                      -6.695475632718919E-6
0.0605                    -6.68929982884467E-6
0.061                     -6.518414759303161E-6
0.0615                    -6.187033850945832E-6
0.062                     -5.703322985698853E-6
0.0625                    -5.0791962610252165E-6
0.063                     -4.330024369361955E-6
0.0635                    -3.474254159836696E-6
0.064                     -2.5329558266330345E-6
0.0645                    -1.5293031374359176E-6
0.065                     -4.88004122259551E-7
0.0655                    5.653075326530939E-7
0.066                     1.604702442684912E-6
0.0665                    2.604593821803445E-6
0.067                     3.5403664805402782E-6
0.0675                    4.388982711113258E-6
0.068                     5.129548909799136E-6
0.0685                    5.743830015054818E-6
0.069                     6.21669836810709E-6
0.0695                    6.536506510154681E-6
0.07                      6.695374270998514E-6
0.07050000000000001       6.689383410194367E-6
0.07100000000000001       6.518674668129215E-6
0.07150000000000001       6.1874450000151196E-6
0.07200000000000001       5.703844839214386E-6
0.0725                    5.079777973777129E-6
0.073                     4.330608804154692E-6
0.0735                    3.4747842681386397E-6
0.074                     2.5333795864781345E-6
0.0745                    1.5295791766130134E-6
0.075                     4.881053300053397E-7
0.0755                    -5.653909873644817E-7
0.076                     -1.6049624552803859E-6
0.0765                    -2.6050048861873334E-6
0.077                     -3.540888403318328E-6
0.0775                    -4.389564367098725E-6
0.078                     -5.1301333907413025E-6
0.0785                    -5.7443600856131396E-6
0.079                     -6.217122159167427E-6
0.0795                    -6.536782523976955E-6
0.08                      -6.695475499156399E-6
0.0805                    -6.6892999390378805E-6
0.081                     -6.518414668578003E-6
0.0815                    -6.1870339253847846E-6
0.082                     -5.703322924449246E-6
0.0825                    -5.079196311464407E-6
0.083                     -4.330024328363398E-6
0.0835                    -3.4742541928788947E-6
0.084                     -2.5329557999644673E-6
0.0845                    -1.5293031588511482E-6
0.085                     -4.880041050833832E-7
0.0855                    5.653075188367378E-7
0.08600000000000001       1.6047024534147552E-6
0.08650000000000001       2.604593814162887E-6
0.08700000000000001       3.5403664853920707E-6
0.08750000000000001       4.388982708515714E-6
0.088                     5.129548911000768E-6
0.0885                    5.743830014190233E-6
0.089                     6.216698369324302E-6
0.0895                    6.536506508187885E-6
0.09                      6.69537427354327E-6
0.0905                    6.689383407479787E-6
0.091                     6.51867467114615E-6
0.0915                    6.187444996907868E-6
0.092                     5.703844841670358E-6
0.0925                    5.079777972218705E-6
0.093                     4.330608805041812E-6
0.0935                    3.474784267364285E-6
0.094                     2.533379587504052E-6
0.0945                    1.5295791759218614E-6
0.095                     4.8810533007469E-7
0.0955                    -5.653909871052639E-7
0.096                     -1.6049624556974592E-6
0.0965                    -2.6050048858362954E-6
0.097                     -3.5408884034433657E-6
0.0975                    -4.389564367266733E-6
0.098                     -5.130133390451459E-6
0.0985                    -5.744360085677634E-6
0.099                     -6.2171221595425E-6
0.0995                    -6.536782522992373E-6
0.1                       -6.695475501182955E-6
0.1005                    -6.689299935681032E-6
0.101                     -6.518414673004791E-6
0.1015                    -6.187033920224143E-6
0.10200000000000001       -5.703322930046177E-6
0.10250000000000001       -5.079196305653767E-6
0.10300000000000001       -4.3300243346143805E-6
0.10350000000000001       -3.4742541864336694E-6
0.10400000000000001       -2.5329558056484992E-6
0.1045                    -1.5293031544690573E-6
0.105                     -4.88004108103613E-7
0.1055                    5.653075207094894E-7
0.106                     1.6047024525431453E-6
0.1065                    2.6045938139096244E-6
0.107                     3.5403664869121386E-6
0.1075                    4.388982705760439E-6
0.108                     5.129548914552543E-6
0.1085                    5.7438300104840685E-6
0.109                     6.2166983721597595E-6
0.1095                    6.536506507272396E-6
0.11                      6.695374272842952E-6
0.1105                    6.689383408943122E-6
0.111                     6.518674669274059E-6
0.1115                    6.18744499879487E-6
0.112                     5.703844840267735E-6
0.1125                    5.079777972939849E-6
0.113                     4.3306088048977675E-6
0.1135                    3.4747842669960752E-6
0.114                     2.533379588507372E-6
0.1145                    1.5295791740955275E-6
0.115                     4.881053327743649E-7
0.1155                    -5.653909902652762E-7
0.116                     -1.6049624530154903E-6
0.1165                    -2.6050048873495697E-6
0.117                     -3.5408884032720393E-6
0.11750000000000001       -4.389564366276471E-6
0.11800000000000001       -5.1301333920445745E-6
0.11850000000000001       -5.74436008396706E-6
0.11900000000000001       -6.217122161359191E-6
0.11950000000000001       -6.536782521046918E-6
0.12                      -6.6954755026984955E-6
0.1205                    -6.689299934864535E-6
0.121                     -6.518414673644293E-6
0.1215                    -6.187033919538034E-6
0.122                     -5.703322930734701E-6
0.1225                    -5.079196305138342E-6
0.123                     -4.3300243344934835E-6
0.1235                    -3.4742541866726877E-6
0.124                     -2.532955806221837E-6
0.1245                    -1.5293031532348363E-6
0.125                     -4.880041099338356E-7
0.1255                    5.653075233811105E-7
0.126                     1.6047024490553292E-6
0.1265                    2.6045938184551665E-6
0.127                     3.5403664812619694E-6
0.1275                    4.388982712158978E-6
0.128                     5.129548907704155E-6
0.1285                    5.743830017498413E-6
0.129                     6.2166983655826266E-6
0.1295                    6.536506512931843E-6
0.13                      6.69537426777009E-6
0.1305                    6.689383413831692E-6
0.131                     6.5186746649106285E-6
0.1315                    6.187445001851982E-6
0.132                     5.703844838878057E-6
0.1325                    5.079777972945884E-6
0.133                     4.330608805866359E-6
0.1335                    3.4747842656056948E-6
0.134                     2.533379589897166E-6
0.1345                    1.52957917267115E-6
0.135                     4.881053342396473E-7
0.1355                    -5.653909920455396E-7
0.136                     -1.6049624504324273E-6
0.1365                    -2.605004890816919E-6
0.137                     -3.540888398964215E-6
0.1375                    -4.389564371151657E-6
0.138                     -5.13013338735099E-6
0.1385                    -5.744360088109275E-6
0.139                     -6.217122157562138E-6
0.1395                    -6.536782524589196E-6
0.14                      -6.695475499735514E-6
0.1405                    -6.689299937393487E-6
0.14100000000000001       -6.5184146706341865E-6
0.14150000000000001       -6.187033923107709E-6
0.14200000000000002       -5.703322927162572E-6
0.14250000000000002       -5.079196308603249E-6
0.14300000000000002       -4.33002433116513E-6
0.14350000000000002       -3.4742541898810566E-6
0.14400000000000002       -2.532955803161013E-6
0.1445                    -1.5293031558320502E-6
0.145                     -4.880041076980443E-7
0.1455                    5.653075210827724E-7
0.146                     1.6047024515914875E-6
0.1465                    2.6045938154221486E-6
0.147                     3.540366485113771E-6
0.1475                    4.388982707653188E-6
0.148                     5.129548912474784E-6
0.1485                    5.743830012305284E-6
0.149                     6.216698371657471E-6
0.1495                    6.53650650582056E-6
0.15                      6.695374275894082E-6
0.1505                    6.689383404876902E-6
0.151                     6.5186746742491515E-6
0.1515                    6.1874449929082E-6
0.152                     5.7038448463835295E-6
0.1525                    5.079777967196202E-6
0.153                     4.330608810588816E-6
0.1535                    3.4747842611357414E-6
0.154                     2.5333795939889403E-6
0.1545                    1.5295791691590049E-6
0.155                     4.881053375119966E-7
0.1555                    -5.65390995159766E-7
0.156                     -1.6049624472344199E-6
0.1565                    -2.6050048944647515E-6
0.157                     -3.5408883952824395E-6
0.1575                    -4.3895643741667046E-6
0.158                     -5.130133385232219E-6
0.1585                    -5.744360089371644E-6
0.159                     -6.217122156965345E-6
0.1595                    -6.53678252475388E-6
0.16                      -6.695475499841035E-6
0.1605                    -6.6892999367859655E-6
0.161                     -6.518414672354712E-6
0.1615                    -6.187033920350304E-6
0.162                     -5.703322930415095E-6
0.1625                    -5.079196305200721E-6
0.163                     -4.330024334533255E-6
0.1635                    -3.4742541866591813E-6
0.164                     -2.5329558059498863E-6
0.1645                    -1.529303153461607E-6
0.165                     -4.880041096595985E-7
0.1655                    5.653075222887561E-7
0.166                     1.6047024513332907E-6
0.1665                    2.604593814605781E-6
0.167                     3.5403664866803815E-6
0.1675                    4.3889827061141356E-6
0.168                     5.129548913361339E-6
0.1685                    5.743830012387092E-6
0.169                     6.216698370451547E-6
0.1695                    6.53650650824893E-6
0.17                      6.695374272445336E-6
0.1705                    6.689383409122647E-6
0.171                     6.518674668987171E-6
0.1715                    6.187444999153259E-6
0.17200000000000001       5.703844839886604E-6
0.17250000000000001       5.0797779733823436E-6
0.17300000000000001       4.330608804610927E-6
0.17350000000000002       3.474784267365109E-6
0.17400000000000002       2.5333795875035153E-6
0.17450000000000002       1.5295791755877658E-6
0.17500000000000002       4.881053311317643E-7
0.17550000000000002       -5.653909889208609E-7
0.176                     -1.604962453483822E-6
0.1765                    -2.6050048877875946E-6
0.177                     -3.540888402200847E-6
0.1775                    -4.389564367695663E-6
0.178                     -5.130133390658942E-6
0.1785                    -5.7443600850543706E-6
0.179                     -6.217122160323211E-6
0.1795                    -6.536782522188722E-6
0.18                      -6.69547550167849E-6
0.1805                    -6.689299935997557E-6
0.181                     -6.5184146722162534E-6
0.1815                    -6.187033920774494E-6
0.182                     -5.703322929772752E-6
0.1825                    -5.079196306276361E-6
0.183                     -4.330024333016816E-6
0.1835                    -3.4742541884838144E-6
0.184                     -2.5329558040314003E-6
0.1845                    -1.5293031555172892E-6
0.185                     -4.88004107656394E-7
0.1855                    5.653075210868779E-7
0.186                     1.6047024511418318E-6
0.1865                    2.604593816127493E-6
0.187                     3.540366484287832E-6
0.1875                    4.388982708794556E-6
0.188                     5.129548910737837E-6
0.1885                    5.743830015245072E-6
0.189                     6.216698367039593E-6
0.1895                    6.536506511996014E-6
0.19                      6.695374268729675E-6
0.1905                    6.689383412584632E-6
0.191                     6.518674666113537E-6
0.1915                    6.187445001209577E-6
0.192                     5.703844838233637E-6
0.1925                    5.079777975353505E-6
0.193                     4.330608801988121E-6
0.1935                    3.4747842701028883E-6
0.194                     2.5333795855528175E-6
0.1945                    1.5295791765562647E-6
0.195                     4.88105330950783E-7
0.1955                    -5.653909891268334E-7
0.196                     -1.604962453087035E-6
0.1965                    -2.6050048886380936E-6
0.197                     -3.5408884007782743E-6
0.1975                    -4.389564369718734E-6
0.198                     -5.130133388139195E-6
0.1985                    -5.744360088212738E-6
0.199                     -6.217122156565771E-6
0.1995                    -6.536782525873447E-6
0.2                       -6.695475498706929E-6
0.2005                    -6.6892999377203335E-6
0.201                     -6.51841467157301E-6
0.2015                    -6.187033921308893E-6
0.202                     -5.703322929089906E-6
0.2025                    -5.079196306581508E-6
0.203                     -4.330024333207862E-6
0.20350000000000001       -3.4742541881169555E-6
0.20400000000000001       -2.532955804255661E-6
0.20450000000000002       -1.529303155547983E-6
0.20500000000000002       -4.880041074118246E-7
0.20550000000000002       5.653075203632988E-7
0.20600000000000002       1.6047024525252507E-6
0.20650000000000002       2.6045938144249884E-6
0.20700000000000002       3.540366486144765E-6
0.20750000000000002       4.388982706382189E-6
0.20800000000000002       5.129548914205466E-6
0.2085                    5.743830010479893E-6
0.209                     6.216698373135824E-6
0.2095                    6.536506505152313E-6
0.21                      6.695374275427799E-6
0.2105                    6.689383406362159E-6
0.211                     6.518674671761444E-6
0.2115                    6.187444996100195E-6
0.212                     5.703844843338864E-6
0.2125                    5.079777969823901E-6
0.213                     4.330608808115043E-6
0.2135                    3.474784263681732E-6
0.214                     2.5333795915591166E-6
0.2145                    1.5295791710199136E-6
0.215                     4.881053361302363E-7
0.2155                    -5.653909937863492E-7
0.216                     -1.604962448895568E-6
0.2165                    -2.605004892703248E-6
0.217                     -3.540888396836216E-6
0.2175                    -4.3895643731354165E-6
0.218                     -5.130133385244634E-6
0.2185                    -5.7443600906506605E-6
0.219                     -6.217122154768171E-6
0.2195                    -6.536782527300713E-6
0.22                      -6.695475496930938E-6
0.2205                    -6.689299940342798E-6
0.221                     -6.518414668168819E-6
0.2215                    -6.187033924954003E-6
0.222                     -5.703322925647944E-6
0.2225                    -5.079196309927335E-6
0.223                     -4.3300243297268564E-6
0.2235                    -3.4742541915434698E-6
0.224                     -2.532955801134797E-6
0.2245                    -1.5293031583899722E-6
0.225                     -4.880041050215099E-7
0.2255                    5.65307518637888E-7
0.226                     1.6047024539719463E-6
0.2265                    2.6045938130127046E-6
0.227                     3.540366487157162E-6
0.2275                    4.38898270639223E-6
0.228                     5.12954891282632E-6
0.2285                    5.7438300128096246E-6
0.229                     6.21669837044387E-6
0.2295                    6.536506507606122E-6
0.23                      6.695374273668279E-6
0.2305                    6.6893834076535515E-6
0.231                     6.51867467047436E-6
0.2315                    6.187444997793438E-6
0.232                     5.703844841136069E-6
0.2325                    5.07977797219957E-6
0.233                     4.330608805502854E-6
0.2335                    3.4747842665931548E-6
0.234                     2.5333795885991486E-6
0.23450000000000001       1.5295791741663926E-6
0.23500000000000001       4.88105332814298E-7
0.23550000000000001       -5.653909907644515E-7
0.23600000000000002       -1.6049624516664516E-6
0.23650000000000002       -2.6050048897387625E-6
0.23700000000000002       -3.5408884001754977E-6
0.23750000000000002       -4.389564369112161E-6
0.23800000000000002       -5.130133390105365E-6
0.23850000000000002       -5.744360085119982E-6
0.23900000000000002       -6.217122160754601E-6
0.23950000000000002       -6.536782521289785E-6
0.24                      -6.69547550264102E-6
0.2405                    -6.689299934980186E-6
0.241                     -6.518414673174871E-6
0.2415                    -6.187033920320734E-6
0.242                     -5.703322929437976E-6
0.2425                    -5.0791963073862935E-6
0.243                     -4.330024331161064E-6
0.2435                    -3.474254191042115E-6
0.244                     -2.532955801217771E-6
0.2445                    -1.5293031583845567E-6
0.245                     -4.880041044746648E-7
0.2455                    5.653075169856502E-7
0.246                     1.6047024565548215E-6
0.2465                    2.6045938100834164E-6
0.247                     3.540366489933684E-6
0.2475                    4.388982703777654E-6
0.248                     5.129548915779979E-6
0.2485                    5.743830009709251E-6
0.249                     6.216698372757147E-6
0.2495                    6.536506506575697E-6
0.25                      6.6953742735411664E-6
0.2505                    6.68938340831662E-6
0.251                     6.518674670229843E-6
0.2515                    6.187444997118417E-6
0.252                     5.703844842425119E-6
0.2525                    5.0797779708110344E-6
0.253                     4.330608806739701E-6
0.2535                    3.4747842656082588E-6
0.254                     2.5333795894201535E-6
0.2545                    1.5295791733188671E-6
0.255                     4.881053337612407E-7
0.2555                    -5.653909916690484E-7
0.256                     -1.6049624508656275E-6
0.2565                    -2.6050048905317167E-6
0.257                     -3.5408883990274034E-6
0.2575                    -4.389564371254241E-6
0.258                     -5.130133386887983E-6
0.2585                    -5.744360089124696E-6
0.259                     -6.2171221561381854E-6
0.2595                    -6.536782526550774E-6
0.26                      -6.69547549667514E-6
0.2605                    -6.689299941180696E-6
0.261                     -6.5184146674142974E-6
0.2615                    -6.1870339255074426E-6
0.262                     -5.703322924946136E-6
0.2625                    -5.079196310566871E-6
0.263                     -4.330024329768881E-6
0.2635                    -3.4742541907297735E-6
0.264                     -2.5329558028630424E-6
0.2645                    -1.5293031554657568E-6
0.265                     -4.88004108738063E-7
0.2655                    5.653075224366498E-7
0.266                     1.6047024503248008E-6
0.2665                    2.6045938167082763E-6
0.267                     3.5403664833698532E-6
0.2675                    4.388982709882535E-6
0.268                     5.129548910108538E-6
0.2685                    5.743830014695519E-6
0.269                     6.2166983691607715E-6
0.2695                    6.536506508279361E-6
0.27                      6.695374273457734E-6
0.2705                    6.689383407480084E-6
0.271                     6.518674671206311E-6
0.2715                    6.187444996647818E-6
0.272                     5.703844842638856E-6
0.2725                    5.079777970195535E-6
0.273                     4.3306088077508294E-6
0.2735                    3.4747842645902907E-6
0.274                     2.533379590079468E-6
0.2745                    1.5295791734385133E-6
0.275                     4.881053327159232E-7
0.2755                    -5.653909901595866E-7
0.276                     -1.6049624521744422E-6
0.2765                    -2.605004889450197E-6
0.277                     -3.540888400150471E-6
0.2775                    -4.389564370071362E-6
0.278                     -5.130133388047047E-6
0.2785                    -5.744360088112998E-6
0.279                     -6.217122156978147E-6
0.2795                    -6.536782525596425E-6
0.28                      -6.695475498217533E-6
0.2805                    -6.689299939298616E-6
0.281                     -6.518414668881787E-6
0.28150000000000003       -6.187033924502513E-6
0.28200000000000003       -5.703322926170462E-6
0.28250000000000003       -5.07919630913191E-6
0.28300000000000003       -4.330024330106999E-6
0.28350000000000003       -3.4742541922489656E-6
0.28400000000000003       -2.532955800123236E-6
0.28450000000000003       -1.5293031589084703E-6
0.28500000000000003       -4.880041044914003E-7
0.28550000000000003       5.653075177887862E-7
0.28600000000000003       1.6047024545316704E-6
0.28650000000000003       2.604593812868178E-6
0.28700000000000003       3.5403664874309667E-6
0.28750000000000003       4.38898270543388E-6
0.28800000000000003       5.129548914630627E-6
0.2885                    5.743830010950943E-6
0.289                     6.2166983715765425E-6
0.2895                    6.536506507306713E-6
0.29                      6.695374273120634E-6
0.2905                    6.689383408672256E-6
0.291                     6.518674669547462E-6
0.2915                    6.187444998154267E-6
0.292                     5.703844841422179E-6
0.2925                    5.079777971838838E-6
0.293                     4.330608805661744E-6
0.2935                    3.4747842670672124E-6
0.294                     2.533379586643486E-6
0.2945                    1.5295791774407905E-6
0.295                     4.881053290418796E-7
0.2955                    -5.653909865554417E-7
0.296                     -1.6049624562270752E-6
0.2965                    -2.605004885515851E-6
0.297                     -3.540888403220333E-6
0.2975                    -4.389564368440656E-6
0.298                     -5.130133387892628E-6
0.2985                    -5.7443600894762315E-6
0.299                     -6.217122155077007E-6
0.2995                    -6.5367825278272374E-6
0.3                       -6.6954754957594974E-6
0.3005                    -6.689299941563144E-6
0.301                     -6.518414667142189E-6
0.3015                    -6.1870339262565255E-6
0.302                     -5.703322923288057E-6
0.3025                    -5.079196313330629E-6
0.303                     -4.33002432596625E-6
0.3035                    -3.4742541955739376E-6
0.304                     -2.5329557969891993E-6
0.3045                    -1.52930316189589E-6
0.305                     -4.880041022056488E-7